# LAMMPS data file written by OVITO Basic 3.7.8
2736 atoms
1 atom types
38.85075 105.70329 xlo xhi
23.22219 54.73849 ylo yhi
-7.02903 8.30661 zlo zhi

Atoms  # atomic

1 1 38.85075 38.15026 -7.02903
2 1 38.85075 38.15026 -4.47284
3 1 40.90325 37.32093 -5.75094
4 1 40.90325 37.32093 -3.19474
5 1 44.42183 38.15027 -5.75094
6 1 44.42183 38.15027 -3.19474
7 1 39.43718 35.66225 -7.02903
8 1 39.43718 35.66225 -4.47284
9 1 42.95576 36.49159 -7.02903
10 1 42.95576 36.49159 -4.47284
11 1 46.47434 37.32093 -7.02903
12 1 46.47434 37.32093 -4.47284
13 1 41.48969 34.83291 -5.75094
14 1 41.48969 34.83291 -3.19474
15 1 45.00827 35.66225 -5.75094
16 1 45.00827 35.66225 -3.19474
17 1 48.52685 36.49159 -5.75094
18 1 48.52685 36.49159 -3.19474
19 1 40.02361 33.17424 -7.02903
20 1 40.02361 33.17424 -4.47284
21 1 43.54219 34.00358 -7.02903
22 1 43.54219 34.00358 -4.47284
23 1 47.06077 34.83292 -7.02903
24 1 47.06077 34.83292 -4.47284
25 1 42.07612 32.3449 -5.75094
26 1 42.07612 32.3449 -3.19474
27 1 45.5947 33.17424 -5.75094
28 1 45.5947 33.17424 -3.19474
29 1 49.11328 34.00358 -5.75094
30 1 49.11328 34.00358 -3.19474
31 1 40.61004 30.68623 -7.02903
32 1 40.61004 30.68623 -4.47284
33 1 44.12862 31.51557 -7.02903
34 1 44.12862 31.51557 -4.47284
35 1 47.64721 32.34491 -7.02903
36 1 47.64721 32.34491 -4.47284
37 1 39.14397 29.02755 -5.75094
38 1 39.14397 29.02755 -3.19474
39 1 42.66255 29.85689 -5.75094
40 1 42.66255 29.85689 -3.19474
41 1 46.18113 30.68623 -5.75094
42 1 46.18113 30.68623 -3.19474
43 1 49.69971 31.51557 -5.75094
44 1 49.69971 31.51557 -3.19474
45 1 41.19647 28.19821 -7.02903
46 1 41.19647 28.19821 -4.47284
47 1 44.71506 29.02755 -7.02903
48 1 44.71506 29.02755 -4.47284
49 1 48.23364 29.85689 -7.02903
50 1 48.23364 29.85689 -4.47284
51 1 39.7304 26.53953 -5.75094
52 1 39.7304 26.53953 -3.19474
53 1 43.24898 27.36887 -5.75094
54 1 43.24898 27.36887 -3.19474
55 1 46.76756 28.19821 -5.75094
56 1 46.76756 28.19821 -3.19474
57 1 41.7829 25.7102 -7.02903
58 1 41.7829 25.7102 -4.47284
59 1 45.30149 26.53954 -7.02903
60 1 45.30149 26.53954 -4.47284
61 1 48.82007 27.36888 -7.02903
62 1 48.82007 27.36888 -4.47284
63 1 40.31683 24.05152 -5.75094
64 1 40.31683 24.05152 -3.19474
65 1 43.83541 24.88086 -5.75094
66 1 43.83541 24.88086 -3.19474
67 1 47.35399 25.7102 -5.75094
68 1 47.35399 25.7102 -3.19474
69 1 42.36934 23.22219 -7.02903
70 1 42.36934 23.22219 -4.47284
71 1 45.88792 24.05153 -7.02903
72 1 45.88792 24.05153 -4.47284
73 1 49.4065 24.88087 -7.02903
74 1 49.4065 24.88087 -4.47284
75 1 47.94043 23.22219 -5.75094
76 1 47.94043 23.22219 -3.19474
77 1 38.85075 38.15026 -1.91715
78 1 38.85075 38.15026 0.63904
79 1 40.90325 37.32093 -0.63906
80 1 40.90325 37.32093 1.91714
81 1 44.42183 38.15027 -0.63906
82 1 44.42183 38.15027 1.91714
83 1 39.43718 35.66225 -1.91715
84 1 39.43718 35.66225 0.63904
85 1 42.95576 36.49159 -1.91715
86 1 42.95576 36.49159 0.63904
87 1 46.47434 37.32093 -1.91715
88 1 46.47434 37.32093 0.63904
89 1 41.48969 34.83291 -0.63906
90 1 41.48969 34.83291 1.91714
91 1 45.00827 35.66225 -0.63906
92 1 45.00827 35.66225 1.91714
93 1 48.52685 36.49159 -0.63906
94 1 48.52685 36.49159 1.91714
95 1 40.02361 33.17424 -1.91715
96 1 40.02361 33.17424 0.63904
97 1 43.54219 34.00358 -1.91715
98 1 43.54219 34.00358 0.63904
99 1 47.06077 34.83292 -1.91715
100 1 47.06077 34.83292 0.63904
101 1 42.07612 32.3449 -0.63906
102 1 42.07612 32.3449 1.91714
103 1 45.5947 33.17424 -0.63906
104 1 45.5947 33.17424 1.91714
105 1 49.11328 34.00358 -0.63906
106 1 49.11328 34.00358 1.91714
107 1 40.61004 30.68623 -1.91715
108 1 40.61004 30.68623 0.63904
109 1 44.12862 31.51557 -1.91715
110 1 44.12862 31.51557 0.63904
111 1 47.64721 32.34491 -1.91715
112 1 47.64721 32.34491 0.63904
113 1 39.14397 29.02755 -0.63906
114 1 39.14397 29.02755 1.91714
115 1 42.66255 29.85689 -0.63906
116 1 42.66255 29.85689 1.91714
117 1 46.18113 30.68623 -0.63906
118 1 46.18113 30.68623 1.91714
119 1 49.69971 31.51557 -0.63906
120 1 49.69971 31.51557 1.91714
121 1 41.19647 28.19821 -1.91715
122 1 41.19647 28.19821 0.63904
123 1 44.71506 29.02755 -1.91715
124 1 44.71506 29.02755 0.63904
125 1 48.23364 29.85689 -1.91715
126 1 48.23364 29.85689 0.63904
127 1 39.7304 26.53953 -0.63906
128 1 39.7304 26.53953 1.91714
129 1 43.24898 27.36887 -0.63906
130 1 43.24898 27.36887 1.91714
131 1 46.76756 28.19821 -0.63906
132 1 46.76756 28.19821 1.91714
133 1 41.7829 25.7102 -1.91715
134 1 41.7829 25.7102 0.63904
135 1 45.30149 26.53954 -1.91715
136 1 45.30149 26.53954 0.63904
137 1 48.82007 27.36888 -1.91715
138 1 48.82007 27.36888 0.63904
139 1 40.31683 24.05152 -0.63906
140 1 40.31683 24.05152 1.91714
141 1 43.83541 24.88086 -0.63906
142 1 43.83541 24.88086 1.91714
143 1 47.35399 25.7102 -0.63906
144 1 47.35399 25.7102 1.91714
145 1 42.36934 23.22219 -1.91715
146 1 42.36934 23.22219 0.63904
147 1 45.88792 24.05153 -1.91715
148 1 45.88792 24.05153 0.63904
149 1 49.4065 24.88087 -1.91715
150 1 49.4065 24.88087 0.63904
151 1 47.94043 23.22219 -0.63906
152 1 47.94043 23.22219 1.91714
153 1 38.85075 38.15026 3.19473
154 1 38.85075 38.15026 5.75092
155 1 40.90325 37.32093 4.47282
156 1 40.90325 37.32093 7.02902
157 1 44.42183 38.15027 4.47282
158 1 44.42183 38.15027 7.02902
159 1 39.43718 35.66225 3.19473
160 1 39.43718 35.66225 5.75092
161 1 42.95576 36.49159 3.19473
162 1 42.95576 36.49159 5.75092
163 1 46.47434 37.32093 3.19473
164 1 46.47434 37.32093 5.75092
165 1 41.48969 34.83291 4.47282
166 1 41.48969 34.83291 7.02902
167 1 45.00827 35.66225 4.47282
168 1 45.00827 35.66225 7.02902
169 1 48.52685 36.49159 4.47282
170 1 48.52685 36.49159 7.02902
171 1 40.02361 33.17424 3.19473
172 1 40.02361 33.17424 5.75092
173 1 43.54219 34.00358 3.19473
174 1 43.54219 34.00358 5.75092
175 1 47.06077 34.83292 3.19473
176 1 47.06077 34.83292 5.75092
177 1 42.07612 32.3449 4.47282
178 1 42.07612 32.3449 7.02902
179 1 45.5947 33.17424 4.47282
180 1 45.5947 33.17424 7.02902
181 1 49.11328 34.00358 4.47282
182 1 49.11328 34.00358 7.02902
183 1 40.61004 30.68623 3.19473
184 1 40.61004 30.68623 5.75092
185 1 44.12862 31.51557 3.19473
186 1 44.12862 31.51557 5.75092
187 1 47.64721 32.34491 3.19473
188 1 47.64721 32.34491 5.75092
189 1 39.14397 29.02755 4.47282
190 1 39.14397 29.02755 7.02902
191 1 42.66255 29.85689 4.47282
192 1 42.66255 29.85689 7.02902
193 1 46.18113 30.68623 4.47282
194 1 46.18113 30.68623 7.02902
195 1 49.69971 31.51557 4.47282
196 1 49.69971 31.51557 7.02902
197 1 41.19647 28.19821 3.19473
198 1 41.19647 28.19821 5.75092
199 1 44.71506 29.02755 3.19473
200 1 44.71506 29.02755 5.75092
201 1 48.23364 29.85689 3.19473
202 1 48.23364 29.85689 5.75092
203 1 39.7304 26.53953 4.47282
204 1 39.7304 26.53953 7.02902
205 1 43.24898 27.36887 4.47282
206 1 43.24898 27.36887 7.02902
207 1 46.76756 28.19821 4.47282
208 1 46.76756 28.19821 7.02902
209 1 41.7829 25.7102 3.19473
210 1 41.7829 25.7102 5.75092
211 1 45.30149 26.53954 3.19473
212 1 45.30149 26.53954 5.75092
213 1 48.82007 27.36888 3.19473
214 1 48.82007 27.36888 5.75092
215 1 40.31683 24.05152 4.47282
216 1 40.31683 24.05152 7.02902
217 1 43.83541 24.88086 4.47282
218 1 43.83541 24.88086 7.02902
219 1 47.35399 25.7102 4.47282
220 1 47.35399 25.7102 7.02902
221 1 42.36934 23.22219 3.19473
222 1 42.36934 23.22219 5.75092
223 1 45.88792 24.05153 3.19473
224 1 45.88792 24.05153 5.75092
225 1 49.4065 24.88087 3.19473
226 1 49.4065 24.88087 5.75092
227 1 47.94043 23.22219 4.47282
228 1 47.94043 23.22219 7.02902
229 1 38.85075 53.90841 -7.02903
230 1 38.85075 53.90841 -4.47284
231 1 40.90325 53.07908 -5.75094
232 1 40.90325 53.07908 -3.19474
233 1 44.42183 53.90842 -5.75094
234 1 44.42183 53.90842 -3.19474
235 1 39.43718 51.4204 -7.02903
236 1 39.43718 51.4204 -4.47284
237 1 42.95576 52.24974 -7.02903
238 1 42.95576 52.24974 -4.47284
239 1 46.47434 53.07908 -7.02903
240 1 46.47434 53.07908 -4.47284
241 1 41.48969 50.59106 -5.75094
242 1 41.48969 50.59106 -3.19474
243 1 45.00827 51.4204 -5.75094
244 1 45.00827 51.4204 -3.19474
245 1 48.52685 52.24974 -5.75094
246 1 48.52685 52.24974 -3.19474
247 1 40.02361 48.93239 -7.02903
248 1 40.02361 48.93239 -4.47284
249 1 43.54219 49.76173 -7.02903
250 1 43.54219 49.76173 -4.47284
251 1 47.06077 50.59107 -7.02903
252 1 47.06077 50.59107 -4.47284
253 1 42.07612 48.10305 -5.75094
254 1 42.07612 48.10305 -3.19474
255 1 45.5947 48.93239 -5.75094
256 1 45.5947 48.93239 -3.19474
257 1 49.11328 49.76173 -5.75094
258 1 49.11328 49.76173 -3.19474
259 1 40.61004 46.44438 -7.02903
260 1 40.61004 46.44438 -4.47284
261 1 44.12862 47.27372 -7.02903
262 1 44.12862 47.27372 -4.47284
263 1 47.64721 48.10306 -7.02903
264 1 47.64721 48.10306 -4.47284
265 1 39.14397 44.7857 -5.75094
266 1 39.14397 44.7857 -3.19474
267 1 42.66255 45.61504 -5.75094
268 1 42.66255 45.61504 -3.19474
269 1 46.18113 46.44438 -5.75094
270 1 46.18113 46.44438 -3.19474
271 1 49.69971 47.27372 -5.75094
272 1 49.69971 47.27372 -3.19474
273 1 41.19647 43.95636 -7.02903
274 1 41.19647 43.95636 -4.47284
275 1 44.71506 44.7857 -7.02903
276 1 44.71506 44.7857 -4.47284
277 1 48.23364 45.61504 -7.02903
278 1 48.23364 45.61504 -4.47284
279 1 39.7304 42.29768 -5.75094
280 1 39.7304 42.29768 -3.19474
281 1 43.24898 43.12702 -5.75094
282 1 43.24898 43.12702 -3.19474
283 1 46.76756 43.95636 -5.75094
284 1 46.76756 43.95636 -3.19474
285 1 41.7829 41.46835 -7.02903
286 1 41.7829 41.46835 -4.47284
287 1 45.30149 42.29769 -7.02903
288 1 45.30149 42.29769 -4.47284
289 1 48.82007 43.12703 -7.02903
290 1 48.82007 43.12703 -4.47284
291 1 40.31683 39.80967 -5.75094
292 1 40.31683 39.80967 -3.19474
293 1 43.83541 40.63901 -5.75094
294 1 43.83541 40.63901 -3.19474
295 1 47.35399 41.46835 -5.75094
296 1 47.35399 41.46835 -3.19474
297 1 42.36934 38.98034 -7.02903
298 1 42.36934 38.98034 -4.47284
299 1 45.88792 39.80968 -7.02903
300 1 45.88792 39.80968 -4.47284
301 1 49.4065 40.63902 -7.02903
302 1 49.4065 40.63902 -4.47284
303 1 47.94043 38.98034 -5.75094
304 1 47.94043 38.98034 -3.19474
305 1 38.85075 53.90841 -1.91715
306 1 38.85075 53.90841 0.63904
307 1 40.90325 53.07908 -0.63906
308 1 40.90325 53.07908 1.91714
309 1 44.42183 53.90842 -0.63906
310 1 44.42183 53.90842 1.91714
311 1 39.43718 51.4204 -1.91715
312 1 39.43718 51.4204 0.63904
313 1 42.95576 52.24974 -1.91715
314 1 42.95576 52.24974 0.63904
315 1 46.47434 53.07908 -1.91715
316 1 46.47434 53.07908 0.63904
317 1 41.48969 50.59106 -0.63906
318 1 41.48969 50.59106 1.91714
319 1 45.00827 51.4204 -0.63906
320 1 45.00827 51.4204 1.91714
321 1 48.52685 52.24974 -0.63906
322 1 48.52685 52.24974 1.91714
323 1 40.02361 48.93239 -1.91715
324 1 40.02361 48.93239 0.63904
325 1 43.54219 49.76173 -1.91715
326 1 43.54219 49.76173 0.63904
327 1 47.06077 50.59107 -1.91715
328 1 47.06077 50.59107 0.63904
329 1 42.07612 48.10305 -0.63906
330 1 42.07612 48.10305 1.91714
331 1 45.5947 48.93239 -0.63906
332 1 45.5947 48.93239 1.91714
333 1 49.11328 49.76173 -0.63906
334 1 49.11328 49.76173 1.91714
335 1 40.61004 46.44438 -1.91715
336 1 40.61004 46.44438 0.63904
337 1 44.12862 47.27372 -1.91715
338 1 44.12862 47.27372 0.63904
339 1 47.64721 48.10306 -1.91715
340 1 47.64721 48.10306 0.63904
341 1 39.14397 44.7857 -0.63906
342 1 39.14397 44.7857 1.91714
343 1 42.66255 45.61504 -0.63906
344 1 42.66255 45.61504 1.91714
345 1 46.18113 46.44438 -0.63906
346 1 46.18113 46.44438 1.91714
347 1 49.69971 47.27372 -0.63906
348 1 49.69971 47.27372 1.91714
349 1 41.19647 43.95636 -1.91715
350 1 41.19647 43.95636 0.63904
351 1 44.71506 44.7857 -1.91715
352 1 44.71506 44.7857 0.63904
353 1 48.23364 45.61504 -1.91715
354 1 48.23364 45.61504 0.63904
355 1 39.7304 42.29768 -0.63906
356 1 39.7304 42.29768 1.91714
357 1 43.24898 43.12702 -0.63906
358 1 43.24898 43.12702 1.91714
359 1 46.76756 43.95636 -0.63906
360 1 46.76756 43.95636 1.91714
361 1 41.7829 41.46835 -1.91715
362 1 41.7829 41.46835 0.63904
363 1 45.30149 42.29769 -1.91715
364 1 45.30149 42.29769 0.63904
365 1 48.82007 43.12703 -1.91715
366 1 48.82007 43.12703 0.63904
367 1 40.31683 39.80967 -0.63906
368 1 40.31683 39.80967 1.91714
369 1 43.83541 40.63901 -0.63906
370 1 43.83541 40.63901 1.91714
371 1 47.35399 41.46835 -0.63906
372 1 47.35399 41.46835 1.91714
373 1 42.36934 38.98034 -1.91715
374 1 42.36934 38.98034 0.63904
375 1 45.88792 39.80968 -1.91715
376 1 45.88792 39.80968 0.63904
377 1 49.4065 40.63902 -1.91715
378 1 49.4065 40.63902 0.63904
379 1 47.94043 38.98034 -0.63906
380 1 47.94043 38.98034 1.91714
381 1 38.85075 53.90841 3.19473
382 1 38.85075 53.90841 5.75092
383 1 40.90325 53.07908 4.47282
384 1 40.90325 53.07908 7.02902
385 1 44.42183 53.90842 4.47282
386 1 44.42183 53.90842 7.02902
387 1 39.43718 51.4204 3.19473
388 1 39.43718 51.4204 5.75092
389 1 42.95576 52.24974 3.19473
390 1 42.95576 52.24974 5.75092
391 1 46.47434 53.07908 3.19473
392 1 46.47434 53.07908 5.75092
393 1 41.48969 50.59106 4.47282
394 1 41.48969 50.59106 7.02902
395 1 45.00827 51.4204 4.47282
396 1 45.00827 51.4204 7.02902
397 1 48.52685 52.24974 4.47282
398 1 48.52685 52.24974 7.02902
399 1 40.02361 48.93239 3.19473
400 1 40.02361 48.93239 5.75092
401 1 43.54219 49.76173 3.19473
402 1 43.54219 49.76173 5.75092
403 1 47.06077 50.59107 3.19473
404 1 47.06077 50.59107 5.75092
405 1 42.07612 48.10305 4.47282
406 1 42.07612 48.10305 7.02902
407 1 45.5947 48.93239 4.47282
408 1 45.5947 48.93239 7.02902
409 1 49.11328 49.76173 4.47282
410 1 49.11328 49.76173 7.02902
411 1 40.61004 46.44438 3.19473
412 1 40.61004 46.44438 5.75092
413 1 44.12862 47.27372 3.19473
414 1 44.12862 47.27372 5.75092
415 1 47.64721 48.10306 3.19473
416 1 47.64721 48.10306 5.75092
417 1 39.14397 44.7857 4.47282
418 1 39.14397 44.7857 7.02902
419 1 42.66255 45.61504 4.47282
420 1 42.66255 45.61504 7.02902
421 1 46.18113 46.44438 4.47282
422 1 46.18113 46.44438 7.02902
423 1 49.69971 47.27372 4.47282
424 1 49.69971 47.27372 7.02902
425 1 41.19647 43.95636 3.19473
426 1 41.19647 43.95636 5.75092
427 1 44.71506 44.7857 3.19473
428 1 44.71506 44.7857 5.75092
429 1 48.23364 45.61504 3.19473
430 1 48.23364 45.61504 5.75092
431 1 39.7304 42.29768 4.47282
432 1 39.7304 42.29768 7.02902
433 1 43.24898 43.12702 4.47282
434 1 43.24898 43.12702 7.02902
435 1 46.76756 43.95636 4.47282
436 1 46.76756 43.95636 7.02902
437 1 41.7829 41.46835 3.19473
438 1 41.7829 41.46835 5.75092
439 1 45.30149 42.29769 3.19473
440 1 45.30149 42.29769 5.75092
441 1 48.82007 43.12703 3.19473
442 1 48.82007 43.12703 5.75092
443 1 40.31683 39.80967 4.47282
444 1 40.31683 39.80967 7.02902
445 1 43.83541 40.63901 4.47282
446 1 43.83541 40.63901 7.02902
447 1 47.35399 41.46835 4.47282
448 1 47.35399 41.46835 7.02902
449 1 42.36934 38.98034 3.19473
450 1 42.36934 38.98034 5.75092
451 1 45.88792 39.80968 3.19473
452 1 45.88792 39.80968 5.75092
453 1 49.4065 40.63902 3.19473
454 1 49.4065 40.63902 5.75092
455 1 47.94043 38.98034 4.47282
456 1 47.94043 38.98034 7.02902
457 1 49.99284 38.15026 -7.02903
458 1 49.99284 38.15026 -4.47284
459 1 52.04534 37.32093 -5.75094
460 1 52.04534 37.32093 -3.19474
461 1 55.56392 38.15027 -5.75094
462 1 55.56392 38.15027 -3.19474
463 1 50.57927 35.66225 -7.02903
464 1 50.57927 35.66225 -4.47284
465 1 54.09785 36.49159 -7.02903
466 1 54.09785 36.49159 -4.47284
467 1 57.61643 37.32093 -7.02903
468 1 57.61643 37.32093 -4.47284
469 1 52.63178 34.83291 -5.75094
470 1 52.63178 34.83291 -3.19474
471 1 56.15036 35.66225 -5.75094
472 1 56.15036 35.66225 -3.19474
473 1 59.66894 36.49159 -5.75094
474 1 59.66894 36.49159 -3.19474
475 1 51.1657 33.17424 -7.02903
476 1 51.1657 33.17424 -4.47284
477 1 54.68428 34.00358 -7.02903
478 1 54.68428 34.00358 -4.47284
479 1 58.20286 34.83292 -7.02903
480 1 58.20286 34.83292 -4.47284
481 1 53.21821 32.3449 -5.75094
482 1 53.21821 32.3449 -3.19474
483 1 56.73679 33.17424 -5.75094
484 1 56.73679 33.17424 -3.19474
485 1 60.25537 34.00358 -5.75094
486 1 60.25537 34.00358 -3.19474
487 1 51.75213 30.68623 -7.02903
488 1 51.75213 30.68623 -4.47284
489 1 55.27071 31.51557 -7.02903
490 1 55.27071 31.51557 -4.47284
491 1 58.7893 32.34491 -7.02903
492 1 58.7893 32.34491 -4.47284
493 1 50.28606 29.02755 -5.75094
494 1 50.28606 29.02755 -3.19474
495 1 53.80464 29.85689 -5.75094
496 1 53.80464 29.85689 -3.19474
497 1 57.32322 30.68623 -5.75094
498 1 57.32322 30.68623 -3.19474
499 1 60.8418 31.51557 -5.75094
500 1 60.8418 31.51557 -3.19474
501 1 52.33856 28.19821 -7.02903
502 1 52.33856 28.19821 -4.47284
503 1 55.85715 29.02755 -7.02903
504 1 55.85715 29.02755 -4.47284
505 1 59.37573 29.85689 -7.02903
506 1 59.37573 29.85689 -4.47284
507 1 50.87249 26.53953 -5.75094
508 1 50.87249 26.53953 -3.19474
509 1 54.39107 27.36887 -5.75094
510 1 54.39107 27.36887 -3.19474
511 1 57.90965 28.19821 -5.75094
512 1 57.90965 28.19821 -3.19474
513 1 52.92499 25.7102 -7.02903
514 1 52.92499 25.7102 -4.47284
515 1 56.44358 26.53954 -7.02903
516 1 56.44358 26.53954 -4.47284
517 1 59.96216 27.36888 -7.02903
518 1 59.96216 27.36888 -4.47284
519 1 51.45892 24.05152 -5.75094
520 1 51.45892 24.05152 -3.19474
521 1 54.9775 24.88086 -5.75094
522 1 54.9775 24.88086 -3.19474
523 1 58.49608 25.7102 -5.75094
524 1 58.49608 25.7102 -3.19474
525 1 53.51143 23.22219 -7.02903
526 1 53.51143 23.22219 -4.47284
527 1 57.03001 24.05153 -7.02903
528 1 57.03001 24.05153 -4.47284
529 1 60.54859 24.88087 -7.02903
530 1 60.54859 24.88087 -4.47284
531 1 59.08252 23.22219 -5.75094
532 1 59.08252 23.22219 -3.19474
533 1 49.99284 38.15026 -1.91715
534 1 49.99284 38.15026 0.63904
535 1 52.04534 37.32093 -0.63906
536 1 52.04534 37.32093 1.91714
537 1 55.56392 38.15027 -0.63906
538 1 55.56392 38.15027 1.91714
539 1 50.57927 35.66225 -1.91715
540 1 50.57927 35.66225 0.63904
541 1 54.09785 36.49159 -1.91715
542 1 54.09785 36.49159 0.63904
543 1 57.61643 37.32093 -1.91715
544 1 57.61643 37.32093 0.63904
545 1 52.63178 34.83291 -0.63906
546 1 52.63178 34.83291 1.91714
547 1 56.15036 35.66225 -0.63906
548 1 56.15036 35.66225 1.91714
549 1 59.66894 36.49159 -0.63906
550 1 59.66894 36.49159 1.91714
551 1 51.1657 33.17424 -1.91715
552 1 51.1657 33.17424 0.63904
553 1 54.68428 34.00358 -1.91715
554 1 54.68428 34.00358 0.63904
555 1 58.20286 34.83292 -1.91715
556 1 58.20286 34.83292 0.63904
557 1 53.21821 32.3449 -0.63906
558 1 53.21821 32.3449 1.91714
559 1 56.73679 33.17424 -0.63906
560 1 56.73679 33.17424 1.91714
561 1 60.25537 34.00358 -0.63906
562 1 60.25537 34.00358 1.91714
563 1 51.75213 30.68623 -1.91715
564 1 51.75213 30.68623 0.63904
565 1 55.27071 31.51557 -1.91715
566 1 55.27071 31.51557 0.63904
567 1 58.7893 32.34491 -1.91715
568 1 58.7893 32.34491 0.63904
569 1 50.28606 29.02755 -0.63906
570 1 50.28606 29.02755 1.91714
571 1 53.80464 29.85689 -0.63906
572 1 53.80464 29.85689 1.91714
573 1 57.32322 30.68623 -0.63906
574 1 57.32322 30.68623 1.91714
575 1 60.8418 31.51557 -0.63906
576 1 60.8418 31.51557 1.91714
577 1 52.33856 28.19821 -1.91715
578 1 52.33856 28.19821 0.63904
579 1 55.85715 29.02755 -1.91715
580 1 55.85715 29.02755 0.63904
581 1 59.37573 29.85689 -1.91715
582 1 59.37573 29.85689 0.63904
583 1 50.87249 26.53953 -0.63906
584 1 50.87249 26.53953 1.91714
585 1 54.39107 27.36887 -0.63906
586 1 54.39107 27.36887 1.91714
587 1 57.90965 28.19821 -0.63906
588 1 57.90965 28.19821 1.91714
589 1 52.92499 25.7102 -1.91715
590 1 52.92499 25.7102 0.63904
591 1 56.44358 26.53954 -1.91715
592 1 56.44358 26.53954 0.63904
593 1 59.96216 27.36888 -1.91715
594 1 59.96216 27.36888 0.63904
595 1 51.45892 24.05152 -0.63906
596 1 51.45892 24.05152 1.91714
597 1 54.9775 24.88086 -0.63906
598 1 54.9775 24.88086 1.91714
599 1 58.49608 25.7102 -0.63906
600 1 58.49608 25.7102 1.91714
601 1 53.51143 23.22219 -1.91715
602 1 53.51143 23.22219 0.63904
603 1 57.03001 24.05153 -1.91715
604 1 57.03001 24.05153 0.63904
605 1 60.54859 24.88087 -1.91715
606 1 60.54859 24.88087 0.63904
607 1 59.08252 23.22219 -0.63906
608 1 59.08252 23.22219 1.91714
609 1 49.99284 38.15026 3.19473
610 1 49.99284 38.15026 5.75092
611 1 52.04534 37.32093 4.47282
612 1 52.04534 37.32093 7.02902
613 1 55.56392 38.15027 4.47282
614 1 55.56392 38.15027 7.02902
615 1 50.57927 35.66225 3.19473
616 1 50.57927 35.66225 5.75092
617 1 54.09785 36.49159 3.19473
618 1 54.09785 36.49159 5.75092
619 1 57.61643 37.32093 3.19473
620 1 57.61643 37.32093 5.75092
621 1 52.63178 34.83291 4.47282
622 1 52.63178 34.83291 7.02902
623 1 56.15036 35.66225 4.47282
624 1 56.15036 35.66225 7.02902
625 1 59.66894 36.49159 4.47282
626 1 59.66894 36.49159 7.02902
627 1 51.1657 33.17424 3.19473
628 1 51.1657 33.17424 5.75092
629 1 54.68428 34.00358 3.19473
630 1 54.68428 34.00358 5.75092
631 1 58.20286 34.83292 3.19473
632 1 58.20286 34.83292 5.75092
633 1 53.21821 32.3449 4.47282
634 1 53.21821 32.3449 7.02902
635 1 56.73679 33.17424 4.47282
636 1 56.73679 33.17424 7.02902
637 1 60.25537 34.00358 4.47282
638 1 60.25537 34.00358 7.02902
639 1 51.75213 30.68623 3.19473
640 1 51.75213 30.68623 5.75092
641 1 55.27071 31.51557 3.19473
642 1 55.27071 31.51557 5.75092
643 1 58.7893 32.34491 3.19473
644 1 58.7893 32.34491 5.75092
645 1 50.28606 29.02755 4.47282
646 1 50.28606 29.02755 7.02902
647 1 53.80464 29.85689 4.47282
648 1 53.80464 29.85689 7.02902
649 1 57.32322 30.68623 4.47282
650 1 57.32322 30.68623 7.02902
651 1 60.8418 31.51557 4.47282
652 1 60.8418 31.51557 7.02902
653 1 52.33856 28.19821 3.19473
654 1 52.33856 28.19821 5.75092
655 1 55.85715 29.02755 3.19473
656 1 55.85715 29.02755 5.75092
657 1 59.37573 29.85689 3.19473
658 1 59.37573 29.85689 5.75092
659 1 50.87249 26.53953 4.47282
660 1 50.87249 26.53953 7.02902
661 1 54.39107 27.36887 4.47282
662 1 54.39107 27.36887 7.02902
663 1 57.90965 28.19821 4.47282
664 1 57.90965 28.19821 7.02902
665 1 52.92499 25.7102 3.19473
666 1 52.92499 25.7102 5.75092
667 1 56.44358 26.53954 3.19473
668 1 56.44358 26.53954 5.75092
669 1 59.96216 27.36888 3.19473
670 1 59.96216 27.36888 5.75092
671 1 51.45892 24.05152 4.47282
672 1 51.45892 24.05152 7.02902
673 1 54.9775 24.88086 4.47282
674 1 54.9775 24.88086 7.02902
675 1 58.49608 25.7102 4.47282
676 1 58.49608 25.7102 7.02902
677 1 53.51143 23.22219 3.19473
678 1 53.51143 23.22219 5.75092
679 1 57.03001 24.05153 3.19473
680 1 57.03001 24.05153 5.75092
681 1 60.54859 24.88087 3.19473
682 1 60.54859 24.88087 5.75092
683 1 59.08252 23.22219 4.47282
684 1 59.08252 23.22219 7.02902
685 1 49.99284 53.90841 -7.02903
686 1 49.99284 53.90841 -4.47284
687 1 52.04534 53.07908 -5.75094
688 1 52.04534 53.07908 -3.19474
689 1 55.56392 53.90842 -5.75094
690 1 55.56392 53.90842 -3.19474
691 1 50.57927 51.4204 -7.02903
692 1 50.57927 51.4204 -4.47284
693 1 54.09785 52.24974 -7.02903
694 1 54.09785 52.24974 -4.47284
695 1 57.61643 53.07908 -7.02903
696 1 57.61643 53.07908 -4.47284
697 1 52.63178 50.59106 -5.75094
698 1 52.63178 50.59106 -3.19474
699 1 56.15036 51.4204 -5.75094
700 1 56.15036 51.4204 -3.19474
701 1 59.66894 52.24974 -5.75094
702 1 59.66894 52.24974 -3.19474
703 1 51.1657 48.93239 -7.02903
704 1 51.1657 48.93239 -4.47284
705 1 54.68428 49.76173 -7.02903
706 1 54.68428 49.76173 -4.47284
707 1 58.20286 50.59107 -7.02903
708 1 58.20286 50.59107 -4.47284
709 1 53.21821 48.10305 -5.75094
710 1 53.21821 48.10305 -3.19474
711 1 56.73679 48.93239 -5.75094
712 1 56.73679 48.93239 -3.19474
713 1 60.25537 49.76173 -5.75094
714 1 60.25537 49.76173 -3.19474
715 1 51.75213 46.44438 -7.02903
716 1 51.75213 46.44438 -4.47284
717 1 55.27071 47.27372 -7.02903
718 1 55.27071 47.27372 -4.47284
719 1 58.7893 48.10306 -7.02903
720 1 58.7893 48.10306 -4.47284
721 1 50.28606 44.7857 -5.75094
722 1 50.28606 44.7857 -3.19474
723 1 53.80464 45.61504 -5.75094
724 1 53.80464 45.61504 -3.19474
725 1 57.32322 46.44438 -5.75094
726 1 57.32322 46.44438 -3.19474
727 1 60.8418 47.27372 -5.75094
728 1 60.8418 47.27372 -3.19474
729 1 52.33856 43.95636 -7.02903
730 1 52.33856 43.95636 -4.47284
731 1 55.85715 44.7857 -7.02903
732 1 55.85715 44.7857 -4.47284
733 1 59.37573 45.61504 -7.02903
734 1 59.37573 45.61504 -4.47284
735 1 50.87249 42.29768 -5.75094
736 1 50.87249 42.29768 -3.19474
737 1 54.39107 43.12702 -5.75094
738 1 54.39107 43.12702 -3.19474
739 1 57.90965 43.95636 -5.75094
740 1 57.90965 43.95636 -3.19474
741 1 52.92499 41.46835 -7.02903
742 1 52.92499 41.46835 -4.47284
743 1 56.44358 42.29769 -7.02903
744 1 56.44358 42.29769 -4.47284
745 1 59.96216 43.12703 -7.02903
746 1 59.96216 43.12703 -4.47284
747 1 51.45892 39.80967 -5.75094
748 1 51.45892 39.80967 -3.19474
749 1 54.9775 40.63901 -5.75094
750 1 54.9775 40.63901 -3.19474
751 1 58.49608 41.46835 -5.75094
752 1 58.49608 41.46835 -3.19474
753 1 53.51143 38.98034 -7.02903
754 1 53.51143 38.98034 -4.47284
755 1 57.03001 39.80968 -7.02903
756 1 57.03001 39.80968 -4.47284
757 1 60.54859 40.63902 -7.02903
758 1 60.54859 40.63902 -4.47284
759 1 59.08252 38.98034 -5.75094
760 1 59.08252 38.98034 -3.19474
761 1 49.99284 53.90841 -1.91715
762 1 49.99284 53.90841 0.63904
763 1 52.04534 53.07908 -0.63906
764 1 52.04534 53.07908 1.91714
765 1 55.56392 53.90842 -0.63906
766 1 55.56392 53.90842 1.91714
767 1 50.57927 51.4204 -1.91715
768 1 50.57927 51.4204 0.63904
769 1 54.09785 52.24974 -1.91715
770 1 54.09785 52.24974 0.63904
771 1 57.61643 53.07908 -1.91715
772 1 57.61643 53.07908 0.63904
773 1 52.63178 50.59106 -0.63906
774 1 52.63178 50.59106 1.91714
775 1 56.15036 51.4204 -0.63906
776 1 56.15036 51.4204 1.91714
777 1 59.66894 52.24974 -0.63906
778 1 59.66894 52.24974 1.91714
779 1 51.1657 48.93239 -1.91715
780 1 51.1657 48.93239 0.63904
781 1 54.68428 49.76173 -1.91715
782 1 54.68428 49.76173 0.63904
783 1 58.20286 50.59107 -1.91715
784 1 58.20286 50.59107 0.63904
785 1 53.21821 48.10305 -0.63906
786 1 53.21821 48.10305 1.91714
787 1 56.73679 48.93239 -0.63906
788 1 56.73679 48.93239 1.91714
789 1 60.25537 49.76173 -0.63906
790 1 60.25537 49.76173 1.91714
791 1 51.75213 46.44438 -1.91715
792 1 51.75213 46.44438 0.63904
793 1 55.27071 47.27372 -1.91715
794 1 55.27071 47.27372 0.63904
795 1 58.7893 48.10306 -1.91715
796 1 58.7893 48.10306 0.63904
797 1 50.28606 44.7857 -0.63906
798 1 50.28606 44.7857 1.91714
799 1 53.80464 45.61504 -0.63906
800 1 53.80464 45.61504 1.91714
801 1 57.32322 46.44438 -0.63906
802 1 57.32322 46.44438 1.91714
803 1 60.8418 47.27372 -0.63906
804 1 60.8418 47.27372 1.91714
805 1 52.33856 43.95636 -1.91715
806 1 52.33856 43.95636 0.63904
807 1 55.85715 44.7857 -1.91715
808 1 55.85715 44.7857 0.63904
809 1 59.37573 45.61504 -1.91715
810 1 59.37573 45.61504 0.63904
811 1 50.87249 42.29768 -0.63906
812 1 50.87249 42.29768 1.91714
813 1 54.39107 43.12702 -0.63906
814 1 54.39107 43.12702 1.91714
815 1 57.90965 43.95636 -0.63906
816 1 57.90965 43.95636 1.91714
817 1 52.92499 41.46835 -1.91715
818 1 52.92499 41.46835 0.63904
819 1 56.44358 42.29769 -1.91715
820 1 56.44358 42.29769 0.63904
821 1 59.96216 43.12703 -1.91715
822 1 59.96216 43.12703 0.63904
823 1 51.45892 39.80967 -0.63906
824 1 51.45892 39.80967 1.91714
825 1 54.9775 40.63901 -0.63906
826 1 54.9775 40.63901 1.91714
827 1 58.49608 41.46835 -0.63906
828 1 58.49608 41.46835 1.91714
829 1 53.51143 38.98034 -1.91715
830 1 53.51143 38.98034 0.63904
831 1 57.03001 39.80968 -1.91715
832 1 57.03001 39.80968 0.63904
833 1 60.54859 40.63902 -1.91715
834 1 60.54859 40.63902 0.63904
835 1 59.08252 38.98034 -0.63906
836 1 59.08252 38.98034 1.91714
837 1 49.99284 53.90841 3.19473
838 1 49.99284 53.90841 5.75092
839 1 52.04534 53.07908 4.47282
840 1 52.04534 53.07908 7.02902
841 1 55.56392 53.90842 4.47282
842 1 55.56392 53.90842 7.02902
843 1 50.57927 51.4204 3.19473
844 1 50.57927 51.4204 5.75092
845 1 54.09785 52.24974 3.19473
846 1 54.09785 52.24974 5.75092
847 1 57.61643 53.07908 3.19473
848 1 57.61643 53.07908 5.75092
849 1 52.63178 50.59106 4.47282
850 1 52.63178 50.59106 7.02902
851 1 56.15036 51.4204 4.47282
852 1 56.15036 51.4204 7.02902
853 1 59.66894 52.24974 4.47282
854 1 59.66894 52.24974 7.02902
855 1 51.1657 48.93239 3.19473
856 1 51.1657 48.93239 5.75092
857 1 54.68428 49.76173 3.19473
858 1 54.68428 49.76173 5.75092
859 1 58.20286 50.59107 3.19473
860 1 58.20286 50.59107 5.75092
861 1 53.21821 48.10305 4.47282
862 1 53.21821 48.10305 7.02902
863 1 56.73679 48.93239 4.47282
864 1 56.73679 48.93239 7.02902
865 1 60.25537 49.76173 4.47282
866 1 60.25537 49.76173 7.02902
867 1 51.75213 46.44438 3.19473
868 1 51.75213 46.44438 5.75092
869 1 55.27071 47.27372 3.19473
870 1 55.27071 47.27372 5.75092
871 1 58.7893 48.10306 3.19473
872 1 58.7893 48.10306 5.75092
873 1 50.28606 44.7857 4.47282
874 1 50.28606 44.7857 7.02902
875 1 53.80464 45.61504 4.47282
876 1 53.80464 45.61504 7.02902
877 1 57.32322 46.44438 4.47282
878 1 57.32322 46.44438 7.02902
879 1 60.8418 47.27372 4.47282
880 1 60.8418 47.27372 7.02902
881 1 52.33856 43.95636 3.19473
882 1 52.33856 43.95636 5.75092
883 1 55.85715 44.7857 3.19473
884 1 55.85715 44.7857 5.75092
885 1 59.37573 45.61504 3.19473
886 1 59.37573 45.61504 5.75092
887 1 50.87249 42.29768 4.47282
888 1 50.87249 42.29768 7.02902
889 1 54.39107 43.12702 4.47282
890 1 54.39107 43.12702 7.02902
891 1 57.90965 43.95636 4.47282
892 1 57.90965 43.95636 7.02902
893 1 52.92499 41.46835 3.19473
894 1 52.92499 41.46835 5.75092
895 1 56.44358 42.29769 3.19473
896 1 56.44358 42.29769 5.75092
897 1 59.96216 43.12703 3.19473
898 1 59.96216 43.12703 5.75092